48   
Scan Cycle 1/37 ; Dihedral 3-5-20-21 = -180.00 ; Iteration 50 Energy -1977.07740144
C       -0.1766645070   -0.9782473044   -3.0859079502
C       -0.5238674078   -1.3335828969   -1.6426786429
C       -1.9862183873   -1.0478167703   -1.3893379847
O       -2.8761862514   -1.5854956855   -1.9925163589
N       -2.0859310400   -0.0870917665   -0.3696942722
C       -0.7793344405    0.2741362793    0.0629684500
S       -0.2880376936    1.3340288194    1.2214169914
N        0.0953849922   -0.4383398154   -0.6797168258
C        1.5081937805   -0.3831614866   -0.4911391279
C        2.2707810401    0.4330752123   -1.3109984453
C        3.6410368314    0.4400192820   -1.1438790910
C        4.2717215797   -0.3271431734   -0.1768129061
C        3.4789148357   -1.1230694331    0.6432021892
C        2.1034664464   -1.1626270489    0.4881499275
C        5.7719352437   -0.3352526114   -0.0627662906
O        6.4901896379   -0.5948627384   -1.0056274595
N        6.2426293203   -0.0748644554    1.1819682563
C        7.6711470678   -0.0184643383    1.4277483396
F        4.3698317187    1.2415853788   -1.9269303966
C       -3.3447281336    0.4033765916    0.1233795468
C       -3.4120118463    1.3588289927    1.1381558891
C       -4.6294070662    1.8121297714    1.6048348821
C       -5.8236927001    1.3288321825    1.0734286619
C       -5.7562762394    0.3826162271    0.0621561881
C       -4.5410718234   -0.0789462293   -0.4113412291
C       -7.1133547015    1.7696693414    1.5322531168
N       -8.1618349520    2.0934431613    1.8705761515
C       -4.6577887752    2.8392671656    2.7112343373
F       -5.2771171820    2.3599850994    3.8017929352
F       -3.4267849991    3.2126828470    3.0823979127
F       -5.3156757883    3.9456815362    2.3325136034
C       -0.2309861578   -2.8016089692   -1.3439617340
H       -0.3782496411    0.0732859280   -3.2899734292
H        0.8759890022   -1.1807460719   -3.2786674700
H       -0.7812661822   -1.5857465060   -3.7564675210
H        1.8149978717    1.0709306278   -2.0542954991
H        3.9543505022   -1.7329573986    1.3997585878
H        1.4896049252   -1.7788732322    1.1295198796
H        5.6074693303    0.2922688501    1.8672972586
H        8.1273278392    0.8461931441    0.9449176909
H        7.8437252272    0.0337428119    2.4991845551
H        8.1438112969   -0.9135570934    1.0311536347
H       -2.5130647883    1.7539272355    1.5710569300
H       -6.6709610122   -0.0031846258   -0.3640620090
H       -4.5396200505   -0.8121078761   -1.1941368831
H       -0.4871245077   -3.0508006369   -0.3142168267
H       -0.8212313698   -3.4258648305   -2.0117919053
H        0.8259791349   -3.0105482911   -1.5041456973
48   
Scan Cycle 2/37 ; Dihedral 3-5-20-21 = -170.00 ; Iteration 32 Energy -1977.07976959
C       -0.1864608144   -0.8566247319   -3.2030206841
C       -0.5556287087   -1.2309349398   -1.7701035697
C       -2.0143246082   -0.9115171330   -1.5249492201
O       -2.9287572980   -1.4311889186   -2.1065036186
N       -2.0868511295    0.1096989839   -0.5692856980
C       -0.7905830800    0.3462955833   -0.0326479396
S       -0.3471683853    1.2532922583    1.2622382070
N        0.0778579054   -0.3642258780   -0.7840004357
C        1.4834641901   -0.3822279106   -0.5438206154
C        2.3075582168    0.4186168308   -1.3176125394
C        3.6701886501    0.3686505682   -1.1007794567
C        4.2337742249   -0.4420294698   -0.1278900416
C        3.3797675117   -1.2239795437    0.6434931823
C        2.0107409948   -1.2057224633    0.4385090018
C        5.7265193327   -0.5080763163    0.0477909230
O        6.4767945157   -0.7540636832   -0.8735310429
N        6.1504132625   -0.3159646121    1.3217291856
C        7.5674496291   -0.3230527181    1.6314180061
F        4.4557436691    1.1578221021   -1.8399505721
C       -3.3216995288    0.5182505525    0.0333220864
C       -3.3763398760    1.6681982019    0.8179761658
C       -4.5440274299    2.0226768962    1.4624935154
C       -5.6852833436    1.2285089302    1.3499387133
C       -5.6255684023    0.0828406588    0.5692674612
C       -4.4577884363   -0.2794915416   -0.0787806505
C       -6.9205019047    1.5521306509    2.0121806645
N       -7.9245150788    1.7723532164    2.5240565724
C       -4.5766130622    3.2818888235    2.2938769917
F       -4.8757605667    3.0124493720    3.5734974338
F       -3.3991858796    3.9202383571    2.2836906941
F       -5.5013312404    4.1413134975    1.8384524383
C       -0.2981932044   -2.7092594717   -1.4944175147
H       -0.3665643775    0.2020556952   -3.3888793874
H        0.8649179477   -1.0746941596   -3.3866645868
H       -0.7928902555   -1.4406657116   -3.8927103285
H        1.9043706508    1.0878205447   -2.0638629639
H        3.8024665367   -1.8673747066    1.4035848530
H        1.3501606348   -1.8079337947    1.0456733816
H        5.4990614058    0.0473622739    1.9937683728
H        8.0751672328    0.5441845387    1.2083424421
H        7.6933632261   -0.3238964057    2.7106341078
H        8.0256408578   -1.2170848368    1.2159166881
H       -2.5181176750    2.3067187482    0.9077603402
H       -6.5028424076   -0.5407375821    0.4770440787
H       -4.4453776723   -1.1776971442   -0.6683452526
H       -0.5646620540   -2.9701795606   -0.4701388190
H       -0.9018801163   -3.3070673584   -2.1743918489
H        0.7534959201   -2.9429314923   -1.6543687611
48   
Scan Cycle 3/37 ; Dihedral 3-5-20-21 = -160.00 ; Iteration 28 Energy -1977.08308387
C       -0.2675114948   -0.7535284009   -3.2096455807
C       -0.6143841230   -1.1821137211   -1.7867133108
C       -2.0642185495   -0.8503144888   -1.4976181280
O       -3.0092557638   -1.3261260875   -2.0675611437
N       -2.0920812599    0.1259371763   -0.4991723370
C       -0.7883824199    0.3202692751    0.0232852145
S       -0.3440550717    1.1677270289    1.3557518054
N        0.0555005683   -0.3678534162   -0.7751730616
C        1.4632897811   -0.4254114057   -0.5565827216
C        2.2960890364    0.3666990769   -1.3302484558
C        3.6600627805    0.2801770986   -1.1341487067
C        4.2170674231   -0.5574619933   -0.1806868599
C        3.3550177273   -1.3291877228    0.5921459221
C        1.9841568913   -1.2754197126    0.4065285642
C        5.7101257199   -0.6614718367   -0.0273995532
O        6.4404627184   -0.9172432631   -0.9619837254
N        6.1572611254   -0.4909236072    1.2416080559
C        7.5782218912   -0.5337637468    1.5298076852
F        4.4541859216    1.0608925910   -1.8733552838
C       -3.2990719237    0.5488160154    0.1361916774
C       -3.3422796348    1.7731038955    0.7965228994
C       -4.4826607778    2.1588017110    1.4713583326
C       -5.6000096416    1.3225591778    1.5031710767
C       -5.5482368199    0.1022148320    0.8429762598
C       -4.4049137388   -0.2920384709    0.1701406588
C       -6.8075088205    1.6797685213    2.1988989549
N       -7.7886098157    1.9261880362    2.7422298978
C       -4.5120259397    3.4920966860    2.1779903605
F       -4.7321502288    3.3420149184    3.4924833931
F       -3.3566920892    4.1557398418    2.0384061938
F       -5.4863557772    4.2789981414    1.6957550253
C       -0.3741793171   -2.6739452826   -1.5772110239
H       -0.4307496470    0.3152966575   -3.3465100226
H        0.7750279717   -0.9836340423   -3.4260438116
H       -0.8998955355   -1.2958228240   -3.9101670423
H        1.8994025195    1.0569364386   -2.0605927745
H        3.7724670452   -1.9930959017    1.3373555142
H        1.3174903421   -1.8705016332    1.0140632308
H        5.5245889916   -0.1187456953    1.9265307432
H        8.0995925268    0.3255972124    1.1072408484
H        7.7201874881   -0.5480332397    2.6069288234
H        8.0092552696   -1.4340308080    1.0989948815
H       -2.4959114839    2.4351021673    0.7687709916
H       -6.4093547143   -0.5494230989    0.8680110311
H       -4.3855394531   -1.2462827930   -0.3270451226
H       -0.6250696804   -2.9730588327   -0.5594443603
H       -0.9991699692   -3.2349081151   -2.2692851950
H        0.6708199312   -2.9158511591   -1.7665598607
48   
Scan Cycle 4/37 ; Dihedral 3-5-20-21 = -150.00 ; Iteration 38 Energy -1977.08562978
C       -0.1971694914   -0.9962865473   -3.1007963582
C       -0.5708368011   -1.3448485530   -1.6629762722
C       -2.0301415272   -1.0073775816   -1.4223791347
O       -2.9685034032   -1.5187166272   -1.9719272254
N       -2.0756683376    0.0176501124   -0.4797577455
C       -0.7882200842    0.2719638735    0.0421767486
S       -0.3987986535    1.2380256457    1.3085317397
N        0.0754328061   -0.4659877768   -0.6873497747
C        1.4797949287   -0.4882667608   -0.4439408911
C        2.3128683510    0.2831456625   -1.2382450659
C        3.6739242507    0.2316401079   -1.0134204066
C        4.2280002680   -0.5524800316   -0.0134994305
C        3.3656383663   -1.3033040219    0.7789206905
C        1.9973984789   -1.2823561432    0.5673023903
C        5.7197452340   -0.6246587429    0.1680609605
O        6.4694085266   -0.9071316770   -0.7432664907
N        6.1430861045   -0.3941490574    1.4357540001
C        7.5595669082   -0.4023354645    1.7480178317
F        4.4678185984    0.9941256700   -1.7714934766
C       -3.2928592769    0.5060521484    0.0757034882
C       -3.3818156956    1.8337009536    0.4786439704
C       -4.5433982479    2.3015095397    1.0585966938
C       -5.6305238124    1.4443385365    1.2451770464
C       -5.5309820950    0.1203794071    0.8372608238
C       -4.3653510215   -0.3539619361    0.2610573335
C       -6.8587786835    1.8865170042    1.8503874174
N       -7.8544623881    2.1986624582    2.3295754648
C       -4.6325207396    3.7448221224    1.4899963271
F       -4.8418167797    3.8474185675    2.8105990296
F       -3.5096065290    4.4190916136    1.2081278601
F       -5.6429487217    4.3760727013    0.8732242479
C       -0.3241994715   -2.8194881489   -1.3619084903
H       -0.3672968664    0.0609720710   -3.3034649917
H        0.8519646173   -1.2273461738   -3.2815545994
H       -0.8092457351   -1.5848681553   -3.7817886246
H        1.9175049336    0.9317595957   -2.0065003865
H        3.7808119932   -1.9250989923    1.5608300208
H        1.3299683438   -1.8610042604    1.1897431202
H        5.4936400869   -0.0034134761    2.0941259607
H        8.0744485994    0.4479630042    1.2999181740
H        7.6839502412   -0.3716891585    2.8269770253
H        8.0115769418   -1.3118332141    1.3602707086
H       -2.5514870940    2.5020490779    0.3303174477
H       -6.3712224759   -0.5424209294    0.9833264494
H       -4.3001137490   -1.3845868398   -0.0465565663
H       -0.5940633044   -3.0607945700   -0.3337147698
H       -0.9307116197   -3.4252056227   -2.0324432557
H        0.7261940061   -3.0635042113   -1.5156390544
48   
Scan Cycle 5/37 ; Dihedral 3-5-20-21 = -140.00 ; Iteration 26 Energy -1977.08713591
C       -0.2864772918   -0.8930910097   -3.0784197844
C       -0.6419228294   -1.2924387365   -1.6496657991
C       -2.0863952604   -0.9224766310   -1.3626483974
O       -3.0553819412   -1.3621946803   -1.9207185530
N       -2.0763496876    0.0289593116   -0.3481632648
C       -0.7730459761    0.2444567764    0.1374088079
S       -0.3437813946    1.1659310121    1.4235517664
N        0.0532517755   -0.4785693061   -0.6486532633
C        1.4621561823   -0.5454169205   -0.4441687278
C        2.2958230580    0.2267322025   -1.2373455119
C        3.6601727067    0.1328721570   -1.0494883294
C        4.2177433762   -0.6933751508   -0.0861522045
C        3.3556191671   -1.4437529823    0.7069164807
C        1.9835853415   -1.3815655615    0.5306234174
C        5.7110963589   -0.8088402161    0.0550661192
O        6.4297325539   -1.0875433967   -0.8820417149
N        6.1724780853   -0.6211907012    1.3165066718
C        7.5958590935   -0.6729870847    1.5910158623
F        4.4551412083    0.8956933346   -1.8062407012
C       -3.2632414425    0.5680036390    0.2202231003
C       -3.3270156126    1.9210589418    0.5292187067
C       -4.4723390475    2.4411371587    1.0970290892
C       -5.5671910171    1.6110012637    1.3530177732
C       -5.4932721400    0.2614895924    1.0314657246
C       -4.3416690287   -0.2642656264    0.4717710338
C       -6.7814944752    2.1090676624    1.9430835300
N       -7.7671628076    2.4659799298    2.4115000710
C       -4.5371194748    3.9094813302    1.4399488790
F       -4.7313580396    4.0950437957    2.7535679952
F       -3.4071674767    4.5482369742    1.1071848332
F       -5.5443703876    4.5174256056    0.7955119788
C       -0.4349404221   -2.7856732643   -1.4171482184
H       -0.4236228036    0.1772828835   -3.2310808812
H        0.7493694548   -1.1521293369   -3.2942106727
H       -0.9342528550   -1.4291218444   -3.7697371321
H        1.8993881868    0.9080344672   -1.9761143824
H        3.7733412372   -2.0981799919    1.4603221070
H        1.3164670744   -1.9609157297    1.1528034250
H        5.5504225837   -0.2308965496    2.0010639240
H        8.1211667318    0.1735660806    1.1479693074
H        7.7488169550   -0.6696889532    2.6667182330
H        8.0136791189   -1.5849150575    1.1718459789
H       -2.4854798683    2.5626752309    0.3283589884
H       -6.3417286123   -0.3766168660    1.2301483088
H       -4.2894629805   -1.3130257576    0.2254154275
H       -0.6935859974   -3.0630246416   -0.3951477668
H       -1.0705057272   -3.3443830487   -2.1015194985
H        0.6050243270   -3.0531051058   -1.6005927774
48   
Scan Cycle 6/37 ; Dihedral 3-5-20-21 = -130.00 ; Iteration 17 Energy -1977.08775998
C       -0.3117870739   -0.7849842782   -3.0573558592
C       -0.6662119126   -1.2323402965   -1.6431519236
C       -2.1040380967   -0.8511115225   -1.3329573538
O       -3.0853026257   -1.2318109712   -1.9120745103
N       -2.0711301687    0.0244897578   -0.2550738726
C       -0.7628066407    0.2234540215    0.2133172470
S       -0.3253381073    1.1082278970    1.5219031742
N        0.0492420682   -0.4703941485   -0.6135343883
C        1.4582114866   -0.5673373262   -0.4236973368
C        2.3001407736    0.2017534150   -1.2112331702
C        3.6640997190    0.0744326759   -1.0407002391
C        4.2141379811   -0.7813404000   -0.0991360213
C        3.3443288372   -1.5266000865    0.6904556799
C        1.9722275566   -1.4318511317    0.5302690333
C        5.7059795435   -0.9339792395    0.0211195646
O        6.4061343490   -1.2127739945   -0.9298736496
N        6.1875653695   -0.7798352588    1.2794984583
C        7.6125886894   -0.8710600982    1.5346097961
F        4.4671141782    0.8335286223   -1.7928614614
C       -3.2425038957    0.5934895599    0.3142946406
C       -3.3128533995    1.9642176356    0.5244636422
C       -4.4558409903    2.5137409120    1.0690360188
C       -5.5408104785    1.6935090414    1.3928636150
C       -5.4611757330    0.3253594686    1.1643445005
C       -4.3105653838   -0.2277755487    0.6292949023
C       -6.7535299767    2.2224056348    1.9592325083
N       -7.7376527985    2.6036001214    2.4113697761
C       -4.5316325211    4.0017083549    1.3108137881
F       -4.7280455395    4.2749830005    2.6084216350
F       -3.4054369330    4.6234617899    0.9351879918
F       -5.5426015163    4.5574389273    0.6261334012
C       -0.4828942096   -2.7367680527   -1.4684952634
H       -0.4270426372    0.2931601738   -3.1674140170
H        0.7162306064   -1.0578561794   -3.2923856355
H       -0.9767936040   -1.2793725015   -3.7632172456
H        1.9112837677    0.9054000351   -1.9327824815
H        3.7557153397   -2.2038752690    1.4269839631
H        1.2993656814   -2.0089637710    1.1483748872
H        5.5835732153   -0.3879956637    1.9791628075
H        8.1530263786   -0.0303996865    1.0986156021
H        7.7791121830   -0.8893430374    2.6081457097
H        8.0025542215   -1.7858583039    1.0952915589
H       -2.4747279508    2.5937340317    0.2729627901
H       -6.3039551820   -0.3023510330    1.4136186747
H       -4.2487286072   -1.2903194962    0.4494896726
H       -0.7424869735   -3.0483265708   -0.4566019483
H       -1.1290250825   -3.2594032028   -2.1712849165
H        0.5522860721   -3.0133228086   -1.6654437851
48   
Scan Cycle 7/37 ; Dihedral 3-5-20-21 = -120.00 ; Iteration 22 Energy -1977.08770317
C       -0.2936389920   -0.6936201854   -3.0484314797
C       -0.6543957733   -1.1853988569   -1.6510131304
C       -2.0941009833   -0.8128770610   -1.3345528093
O       -3.0744780929   -1.1547376679   -1.9383338417
N       -2.0638165509   -0.0018625466   -0.2089446134
C       -0.7581953009    0.2002948519    0.2579845684
S       -0.3379490309    1.0611330397    1.5876663915
N        0.0586646540   -0.4587593133   -0.5927869590
C        1.4654054338   -0.5694088939   -0.3962548034
C        2.3199912611    0.1967770518   -1.1729003901
C        3.6817125062    0.0535000199   -0.9961043667
C        4.2174657410   -0.8143790276   -0.0574728335
C        3.3351448522   -1.5557271387    0.7220814015
C        1.9652729355   -1.4460135925    0.5544158343
C        5.7066815912   -0.9839093250    0.0711167013
O        6.4109739395   -1.2588761063   -0.8779383998
N        6.1806603483   -0.8499779801    1.3348126598
C        7.6027090464   -0.9593214889    1.5990381324
F        4.4964403639    0.8097054469   -1.7386093831
C       -3.2309792241    0.5805112477    0.3558183202
C       -3.3350216354    1.9611954164    0.4484679764
C       -4.4810628712    2.5247712053    0.9711895180
C       -5.5344157878    1.7051260952    1.3889697683
C       -5.4222532191    0.3250218516    1.2745606741
C       -4.2678706215   -0.2396320534    0.7591718543
C       -6.7492078456    2.2484367083    1.9373641305
N       -7.7332066624    2.6413013105    2.3795633752
C       -4.5983931293    4.0254208612    1.0797706693
F       -4.7769367801    4.4116193817    2.3507245337
F       -3.4995581527    4.6421956893    0.6228832952
F       -5.6398261828    4.4843039592    0.3694818678
C       -0.4740951030   -2.6950081153   -1.5235948950
H       -0.4017772259    0.3883072646   -3.1228598748
H        0.7327064345   -0.9656182317   -3.2914149800
H       -0.9611379363   -1.1596323821   -3.7710591834
H        1.9431903412    0.9106018377   -1.8907403741
H        3.7351409862   -2.2425627549    1.4560187968
H        1.2828609466   -2.0210549805    1.1639487461
H        5.5760605106   -0.4589481335    2.0344078891
H        8.1553621979   -0.1202302071    1.1754919178
H        7.7612510074   -0.9902203027    2.6735032476
H        7.9859893531   -1.8738319804    1.1532873323
H       -2.5178894655    2.5872096178    0.1261860682
H       -6.2425306389   -0.3005191957    1.5942872246
H       -4.1767179209   -1.3115919083    0.6637750150
H       -0.7403006506   -3.0382170351   -0.5237042601
H       -1.1160809139   -3.1943739826   -2.2468493841
H        0.5621522202   -2.9663772100   -1.7224219883
48   
Scan Cycle 8/37 ; Dihedral 3-5-20-21 = -110.00 ; Iteration 34 Energy -1977.08726767
C       -0.2277073665   -0.6804559011   -3.0323320621
C       -0.6195737696   -1.1826391329   -1.6472593355
C       -2.0653624209   -0.8077003769   -1.3579036950
O       -3.0344325994   -1.1281106193   -1.9905568191
N       -2.0553916440   -0.0253590357   -0.2131906038
C       -0.7598249618    0.1837037018    0.2728830326
S       -0.3748755426    1.0505609568    1.6090696777
N        0.0741469123   -0.4671737199   -0.5676634640
C        1.4762862577   -0.5803006727   -0.3432365197
C        2.3486092949    0.1864508269   -1.0994096234
C        3.7060879494    0.0409934857   -0.8936116833
C        4.2203340094   -0.8293774284    0.0548130785
C        3.3201965191   -1.5713944316    0.8131636731
C        1.9545226629   -1.4597493660    0.6159573781
C        5.7059859612   -1.0003681912    0.2174371284
O        6.4334283995   -1.2664283144   -0.7165839373
N        6.1487722019   -0.8788209442    1.4938015288
C        7.5636479831   -0.9920338215    1.7923162637
F        4.5373666087    0.7980154972   -1.6167257815
C       -3.2254680886    0.5777947596    0.3256875141
C       -3.3773847992    1.9546424793    0.2565487393
C       -4.5266245380    2.5392582691    0.7479321738
C       -5.5342598378    1.7400927161    1.2978289407
C       -5.3749986152    0.3606086412    1.3449044263
C       -4.2170951352   -0.2226244658    0.8581886211
C       -6.7504633306    2.3044575475    1.8217073407
N       -7.7336972257    2.7140066480    2.2501433063
C       -4.6961201783    4.0373611206    0.6814130374
F       -4.8430246670    4.5676034777    1.9031353363
F       -3.6379575585    4.6298593262    0.1103325331
F       -5.7778445880    4.3734129062   -0.0362068665
C       -0.4470539845   -2.6938124656   -1.5285249707
H       -0.3295532999    0.4025676606   -3.0995035992
H        0.8021292230   -0.9550464066   -3.2569127912
H       -0.8825766495   -1.1368674415   -3.7724271237
H        1.9884681646    0.9028126976   -1.8232134915
H        3.7032462257   -2.2604764958    1.5540017991
H        1.2583161952   -2.0355006950    1.2090346418
H        5.5275024050   -0.4932211962    2.1817101997
H        8.1270169054   -0.1477197895    1.3939759505
H        7.6950689311   -1.0371386094    2.8699578651
H        7.9578166728   -1.9008066654    1.3443795585
H       -2.5921751578    2.5630932485   -0.1651744746
H       -6.1613609689   -0.2482499535    1.7659735808
H       -4.0858278552   -1.2946201566    0.8880209212
H       -0.7358105743   -3.0440596329   -0.5373596432
H       -1.0748827641   -3.1853763697   -2.2693774163
H        0.5923986178   -2.9671184682   -1.7071443850
48   
Scan Cycle 9/37 ; Dihedral 3-5-20-21 = -100.00 ; Iteration 23 Energy -1977.08666291
C       -0.2174205152   -0.5549865595   -3.0422290956
C       -0.6051935429   -1.0966796826   -1.6713918354
C       -2.0514827692   -0.7335578876   -1.3667950016
O       -3.0210244539   -1.0222623290   -2.0136045236
N       -2.0404980126   -0.0093106512   -0.1855462854
C       -0.7453535523    0.1924171049    0.3010567293
S       -0.3699936343    1.0150190498    1.6673764655
N        0.0908471379   -0.4147532102   -0.5704179214
C        1.4921527621   -0.5431290424   -0.3499154548
C        2.3710675688    0.2144869084   -1.1078028476
C        3.7276523858    0.0487723158   -0.9109167584
C        4.2354374180   -0.8316732729    0.0313949222
C        3.3292312566   -1.5626710723    0.7934078140
C        1.9642547970   -1.4319371117    0.6040480495
C        5.7194334921   -1.0260780208    0.1819841831
O        6.4345708065   -1.3040966191   -0.7580724261
N        6.1753407138   -0.9110553494    1.4542815338
C        7.5910033176   -1.0461829878    1.7398118546
F        4.5651904705    0.7961964773   -1.6370844583
C       -3.2097491150    0.5661113207    0.3886140216
C       -3.4638108981    1.9167816117    0.2066303013
C       -4.6138326590    2.4713210261    0.7315028181
C       -5.5195466483    1.6646492030    1.4276227855
C       -5.2575486583    0.3098610013    1.5915134177
C       -4.0985323600   -0.2407500004    1.0710694357
C       -6.7358123421    2.1965248565    1.9847522311
N       -7.7162388642    2.5813949092    2.4414577153
C       -4.8943784366    3.9430716138    0.5487673007
F       -5.0188732348    4.5658120532    1.7285835320
F       -3.9099171038    4.5534287104   -0.1258528367
F       -6.0313743292    4.1420211600   -0.1338488230
C       -0.4316857391   -2.6109629443   -1.5974790009
H       -0.3130603295    0.5301313416   -3.0763429556
H        0.8089878378   -0.8292687673   -3.2820924604
H       -0.8798634337   -0.9848787262   -3.7914520747
H        2.0175610997    0.9386985109   -1.8269299107
H        3.7068599569   -2.2596279082    1.5296623425
H        1.2637673406   -2.0008877326    1.1986001608
H        5.5662585627   -0.5159172741    2.1476347712
H        8.1639520125   -0.2121163479    1.3336147184
H        7.7319322432   -1.0903979964    2.8162717645
H        7.9664645129   -1.9623429888    1.2908005047
H       -2.7556353192    2.5307302979   -0.3290827866
H       -5.9656571210   -0.3044818512    2.1277192343
H       -3.8848292063   -1.2930348217    1.1922632317
H       -0.7196929890   -2.9906462875   -0.6169751023
H       -1.0590422776   -3.0811887161   -2.3524748895
H        0.6080818317   -2.8778081145   -1.7841344304
48   
Scan Cycle 10/37 ; Dihedral 3-5-20-21 = -90.00 ; Iteration 29 Energy -1977.08633271
C       -0.2004365096   -0.4505264467   -3.0549697970
C       -0.5917162213   -1.0338051026   -1.7020479512
C       -2.0371145282   -0.6726952563   -1.3883731009
O       -3.0089818234   -0.9474474314   -2.0378548372
N       -2.0203445250    0.0360252096   -0.1990576659
C       -0.7271609507    0.2037425456    0.3031248673
S       -0.3541473577    0.9825985471    1.6955355840
N        0.1068385957   -0.3888732502   -0.5802278453
C        1.5064978619   -0.5312007167   -0.3587498529
C        2.3930089794    0.2423138310   -1.0913807049
C        3.7477684695    0.0662141080   -0.8904733952
C        4.2461731391   -0.8397622666    0.0324488633
C        3.3324467425   -1.5875959834    0.7687193230
C        1.9693161454   -1.4470346714    0.5739091896
C        5.7283940187   -1.0405916511    0.1915890340
O        6.4527350918   -1.2944043200   -0.7482375923
N        6.1713222177   -0.9601424938    1.4712329429
C        7.5837755213   -1.1040664785    1.7679159348
F        4.5928396151    0.8289803772   -1.5916310017
C       -3.1867379832    0.5816228738    0.4104839275
C       -3.5780748312    1.8692527696    0.0825946995
C       -4.7145316906    2.4050274389    0.6554409216
C       -5.4613711525    1.6429767655    1.5582676304
C       -5.0592825982    0.3501436312    1.8742379506
C       -3.9186987638   -0.1822727949    1.2982337016
C       -6.6520335570    2.1584100640    2.1824697039
N       -7.6056769146    2.5318634815    2.7011613908
C       -5.1417596798    3.8103540695    0.3088226795
F       -5.1625670509    4.5946859575    1.3949766095
F       -4.3080789468    4.3735328637   -0.5775486550
F       -6.3701871678    3.8305686088   -0.2271870787
C       -0.4248389450   -2.5499997614   -1.6753770120
H       -0.2916072177    0.6355730001   -3.0544449676
H        0.8252070347   -0.7209551719   -3.3024252631
H       -0.8636664424   -0.8537718945   -3.8182077298
H        2.0466781188    0.9870678570   -1.7928120889
H        3.7028259732   -2.3045342998    1.4892918579
H        1.2628799278   -2.0284473815    1.1490334750
H        5.5556394564   -0.5818974438    2.1681897173
H        8.1614272316   -0.2595602354    1.3909792227
H        7.7131835289   -1.1779301874    2.8442121313
H        7.9635337633   -2.0078417371    1.2979562484
H       -2.9892737598    2.4503415290   -0.6110427265
H       -5.6448486472   -0.2292273153    2.5726859857
H       -3.5934553498   -1.1838889556    1.5405204138
H       -0.7144954879   -2.9587608823   -0.7071522684
H       -1.0549794876   -2.9935054857   -2.4440690738
H        0.6135761369   -2.8158107143   -1.8707634373
48   
Scan Cycle 11/37 ; Dihedral 3-5-20-21 = -80.00 ; Iteration 58 Energy -1977.08639161
C       -0.1358202606   -0.3339111037   -3.0579637210
C       -0.5377636771   -0.9210304084   -1.7095310651
C       -1.9818865410   -0.5534751641   -1.4006642746
O       -2.9549053455   -0.8431602528   -2.0417656149
N       -1.9639218200    0.1859687886   -0.2291785109
C       -0.6744544810    0.3180983880    0.2952760536
S       -0.2991699284    1.0749646281    1.6992816788
N        0.1590677770   -0.2846910224   -0.5818433014
C        1.5537283022   -0.4542870608   -0.3470138979
C        2.4626951624    0.3022712114   -1.0696961189
C        3.8118275555    0.0937553065   -0.8608031303
C        4.2831857716   -0.8289627579    0.0597457742
C        3.3474604028   -1.5583671494    0.7868822044
C        1.9893440145   -1.3846497283    0.5845190777
C        5.7590887854   -1.0690388830    0.2235388612
O        6.4805074730   -1.3330698036   -0.7157182262
N        6.1987353176   -1.0123840298    1.5055694504
C        7.6055326469   -1.1977861472    1.8062516218
F        4.6791108234    0.8399318489   -1.5525791791
C       -3.1442077526    0.6556014624    0.4153081372
C       -3.7670501629    1.7951917861   -0.0654128651
C       -4.9221298123    2.2508704046    0.5416104391
C       -5.4443122103    1.5652114512    1.6410988894
C       -4.8024185034    0.4274226971    2.1188638630
C       -3.6511702869   -0.0297333434    1.5033983290
C       -6.6443252530    1.9996435757    2.3075020862
N       -7.5978408029    2.3100795553    2.8664049050
C       -5.6179769787    3.4825312039    0.0146871564
F       -5.7232615155    4.4275597888    0.9587300123
F       -4.9547269231    4.0204158287   -1.0190356944
F       -6.8574706131    3.1965617896   -0.4087190327
C       -0.3806321728   -2.4382213855   -1.6895113279
H       -0.2205727401    0.7526879299   -3.0528040093
H        0.8897711907   -0.6091525880   -3.3004542945
H       -0.7962659140   -0.7305008991   -3.8271477181
H        2.1382109835    1.0575121233   -1.7704025183
H        3.6963121151   -2.2881930610    1.5052693172
H        1.2660808366   -1.9530829695    1.1516101680
H        5.5906272826   -0.6245294283    2.2038647577
H        8.2076893313   -0.3660222257    1.4395004932
H        7.7285362461   -1.2853066427    2.8822722953
H        7.9622540427   -2.1072175616    1.3291795166
H       -3.3516762267    2.3191736257   -0.9129295489
H       -5.2136564758   -0.0920765134    2.9717338357
H       -3.1403108226   -0.9081030221    1.8708375640
H       -0.6756289009   -2.8501444933   -0.7242599140
H       -1.0124873048   -2.8732964370   -2.4615366188
H        0.6562773447   -2.7103141125   -1.8839659450
48   
Scan Cycle 12/37 ; Dihedral 3-5-20-21 = -70.00 ; Iteration 30 Energy -1977.08703290
C       -0.0626387333   -0.4133260471   -2.9579915232
C       -0.5756989472   -1.0002481349   -1.6467872878
C       -1.9936498385   -0.5117337998   -1.3890527891
O       -2.9634749632   -0.7191437388   -2.0660742813
N       -1.9554912868    0.2308009746   -0.2186882681
C       -0.6760470612    0.2597151970    0.3474929332
S       -0.2638635272    1.0232301010    1.7378819724