8    
Scan Cycle 1/3 ; Dihedral 2-1-5-6 = 100.00 ; Iteration 17 Energy -79.86322878
C       -4.1308397169    0.7089121775   -0.0029641817
H       -3.3702475828    0.0591022526   -0.4367267153
H       -4.4563206996    1.4101699774   -0.7707867945
H       -4.9818431111    0.0673432646    0.2301891527
C       -3.6153560516    1.4275781958    1.2538418280
H       -3.3121483952    2.4522351015    1.0369389582
H       -4.3924654614    1.4954537203    2.0165158693
H       -2.7676021814    0.9103502759    1.7022176674
8    
Scan Cycle 2/3 ; Dihedral 2-1-5-6 = 110.00 ; Iteration 14 Energy -79.86241045
C       -4.1324317673    0.7063369757   -0.0026594293
H       -3.4037497125   -0.0085066846   -0.3852242398
H       -4.3660550793    1.4033526267   -0.8069812583
H       -5.0410132500    0.1405093387    0.2056554306
C       -3.6174533334    1.4289227559    1.2556180221
H       -3.3973285944    2.4781006820    1.0578657549
H       -4.3579541987    1.4136565861    2.0559314444
H       -2.7111367036    0.9689455587    1.6484996721
8    
Scan Cycle 3/3 ; Dihedral 2-1-5-6 = 120.00 ; Iteration 13 Energy -79.86210267
C       -4.1350634810    0.7031237128   -0.0005267438
H       -3.4437803126   -0.0724795379   -0.3300771945
H       -4.2693478220    1.3886424932   -0.8372153250
H       -5.0965441658    0.2206867102    0.1751450169
C       -3.6216966133    1.4297555362    1.2575023764
H       -3.4859685793    2.4967832378    1.0812459683
H       -4.3140581469    1.3294059528    2.0933351151
H       -2.6610996588    1.0354145352    1.5888109118
